

/*!
\page page_credits Credits

<hr>
<h1>HOOMD-blue Developers:</h1>
<hr>
Joshua Anderson, University of Michigan (original development as a student at Iowa State University and Ames Laboratory) - <b>lead developer</b>
 - (everything that somebody else listed below didn't do)

Alex Travesset, Iowa State University and Ames Laboratory - <b>Joshua's PhD advisor</b>
 - Electrostatic forces

Rastko Sknepnek, Iowa State University and Ames Laboratory
 - integrate.npt implementation
 - pair.morse implementation

Carolyn Phillips, University of Michigan
 - integrate.bdnvt implementation
 - bond.fene implementation
 - Shifted LJ forces
 - Initial testing and debugging of HOOMD on Mac OS X systems
 
Aaron Keys, University of Michigan
  - update.enforce2d and other updates enabling to 2D simulations
  - hoomd c++ compilation helper script
  - binary restart files
  
Axel Kohlmeyer, David LeBard, Ben Levine, all from the ICMS group at Temple University
  - pair.cgcmm implementation
  - angle.harmonic implementation
  - angle.cgcmm implementation
  - dihedral.harmonic implementation
  - improper.harmonic implementation
  - numerous other small contributions enhancing the usability of HOOMD

While not having contributed a significant amount of code to HOOMD-blue, David Tarjan at the University of Virginia is 
responsible for numerous performance tweaks to the neighbor list and pair force code.

<hr>
<h1>Source code</h1>
<hr>
<b>HOOMD:</b> HOOMD-blue is a continuation of the HOOMD project (http://www.ameslab.gov/hoomd/). The code from the original project is used under
the following license:<br>

\verbatim
Highly Optimized Object-Oriented Molecular Dynamics (HOOMD) Open
Source Software License
Copyright (c) 2008 Ames Laboratory Iowa State University
All rights reserved.

Redistribution and use of HOOMD, in source and binary forms, with or
without modification, are permitted, provided that the following
conditions are met:

* Redistributions of source code must retain the above copyright notice,
this list of conditions and the following disclaimer.

* Redistributions in binary form must reproduce the above copyright
notice, this list of conditions and the following disclaimer in the
documentation and/or other materials provided with the distribution.

* Neither the name of the copyright holder nor the names HOOMD's
contributors may be used to endorse or promote products derived from this
software without specific prior written permission.

Disclaimer

THIS SOFTWARE IS PROVIDED BY THE COPYRIGHT HOLDER AND
CONTRIBUTORS ``AS IS''  AND ANY EXPRESS OR IMPLIED WARRANTIES,
INCLUDING, BUT NOT LIMITED TO, THE IMPLIED WARRANTIES OF MERCHANTABILITY
AND FITNESS FOR A PARTICULAR PURPOSE ARE DISCLAIMED. 

IN NO EVENT SHALL THE COPYRIGHT HOLDER OR CONTRIBUTORS  BE LIABLE
FOR ANY DIRECT, INDIRECT, INCIDENTAL, SPECIAL, EXEMPLARY, OR
CONSEQUENTIAL DAMAGES (INCLUDING, BUT NOT LIMITED TO, PROCUREMENT OF
SUBSTITUTE GOODS OR SERVICES; LOSS OF USE, DATA, OR PROFITS; OR BUSINESS
INTERRUPTION) HOWEVER CAUSED AND ON ANY THEORY OF LIABILITY, WHETHER IN
CONTRACT, STRICT LIABILITY, OR TORT (INCLUDING NEGLIGENCE OR OTHERWISE)
ARISING IN ANY WAY OUT OF THE USE OF THIS SOFTWARE, EVEN IF ADVISED OF
THE POSSIBILITY OF SUCH DAMAGE.
\endverbatim

<hr>
<b>Sockets code</b> from VMD is used for the IMDInterface to VMD (http://www.ks.uiuc.edu/Research/vmd/) - Used under the UIUC Open Source License<br>
<b>Molfile plugin code</b> from VMD is used for generic file format reading and writing) - Used under the UIUC Open Source License<br>
\verbatim
University of Illinois Open Source License
Copyright 2006 Theoretical and Computational Biophysics Group, 
All rights reserved.

Developed by:		Theoretical and Computational Biophysics Group
			University of Illinois at Urbana-Champaign
			http://www.ks.uiuc.edu/

Permission is hereby granted, free of charge, to any person obtaining a copy of
this software and associated documentation files (the Software), to deal with 
the Software without restriction, including without limitation the rights to 
use, copy, modify, merge, publish, distribute, sublicense, and/or sell copies 
of the Software, and to permit persons to whom the Software is furnished to 
do so, subject to the following conditions:

Redistributions of source code must retain the above copyright notice, 
this list of conditions and the following disclaimers.

Redistributions in binary form must reproduce the above copyright notice, 
this list of conditions and the following disclaimers in the documentation 
and/or other materials provided with the distribution.

Neither the names of Theoretical and Computational Biophysics Group, 
University of Illinois at Urbana-Champaign, nor the names of its contributors 
may be used to endorse or promote products derived from this Software without 
specific prior written permission.

THE SOFTWARE IS PROVIDED AS IS, WITHOUT WARRANTY OF ANY KIND, EXPRESS OR 
IMPLIED, INCLUDING BUT NOT LIMITED TO THE WARRANTIES OF MERCHANTABILITY, 
FITNESS FOR A PARTICULAR PURPOSE AND NONINFRINGEMENT.  IN NO EVENT SHALL 
THE CONTRIBUTORS OR COPYRIGHT HOLDERS BE LIABLE FOR ANY CLAIM, DAMAGES OR 
OTHER LIABILITY, WHETHER IN AN ACTION OF CONTRACT, TORT OR OTHERWISE, 
ARISING FROM, OUT OF OR IN CONNECTION WITH THE SOFTWARE OR THE USE OR 
OTHER DEALINGS WITH THE SOFTWARE.
\endverbatim
<hr>
<b>XML parsing</b> is performed with XML.c from http://www.applied-mathematics.net/tools/xmlParser.html - Used under the BSD License<br>
<br>
Copyright (c) 2002, Frank Vanden Berghen<br>
All rights reserved.<br>
Redistribution and use in source and binary forms, with or without
modification, are permitted provided that the following conditions are met:

 - Redistributions of source code must retain the above copyright
      notice, this list of conditions and the following disclaimer.
 - Redistributions in binary form must reproduce the above copyright
      notice, this list of conditions and the following disclaimer in the
      documentation and/or other materials provided with the distribution.
 - Neither the name of the Frank Vanden Berghen nor the
      names of its contributors may be used to endorse or promote products
      derived from this software without specific prior written permission.

THIS SOFTWARE IS PROVIDED BY THE REGENTS AND CONTRIBUTORS ``AS IS'' AND ANY
EXPRESS OR IMPLIED WARRANTIES, INCLUDING, BUT NOT LIMITED TO, THE IMPLIED
WARRANTIES OF MERCHANTABILITY AND FITNESS FOR A PARTICULAR PURPOSE ARE
DISCLAIMED. IN NO EVENT SHALL THE REGENTS AND CONTRIBUTORS BE LIABLE FOR ANY
DIRECT, INDIRECT, INCIDENTAL, SPECIAL, EXEMPLARY, OR CONSEQUENTIAL DAMAGES
(INCLUDING, BUT NOT LIMITED TO, PROCUREMENT OF SUBSTITUTE GOODS OR SERVICES;
LOSS OF USE, DATA, OR PROFITS; OR BUSINESS INTERRUPTION) HOWEVER CAUSED AND
ON ANY THEORY OF LIABILITY, WHETHER IN CONTRACT, STRICT LIABILITY, OR TORT
INCLUDING NEGLIGENCE OR OTHERWISE) ARISING IN ANY WAY OUT OF THE USE OF THIS
SOFTWARE, EVEN IF ADVISED OF THE POSSIBILITY OF SUCH DAMAGE.
<hr>
<b>FindCUDA.cmake</b> (http://www.sci.utah.edu/~abe/FindCuda.html) has been modified slightly and is used as part of the build system - Used under the MIT License<br>
\verbatim
The MIT License

Copyright (c) 2008-2009
NVIDIA Corp.

Copyright (c) 2007-2009
Scientific Computing and Imaging Institute, University of Utah

License for the specific language governing rights and limitations under
Permission is hereby granted, free of charge, to any person obtaining a
copy of this software and associated documentation files (the "Software"),
to deal in the Software without restriction, including without limitation
the rights to use, copy, modify, merge, publish, distribute, sublicense,
and/or sell copies of the Software, and to permit persons to whom the
Software is furnished to do so, subject to the following conditions:

The above copyright notice and this permission notice shall be included
in all copies or substantial portions of the Software.
\endverbatim
<hr>
<b>Saru</b> is used for random number generation - Used under the following license<br>
Copyright (c) 2008 Steve Worley < m a t h g e e k@(my last name).com >

Permission to use, copy, modify, and distribute this software for any
purpose with or without fee is hereby granted, provided that the above
copyright notice and this permission notice appear in all copies.

THE SOFTWARE IS PROVIDED "AS IS" AND THE AUTHOR DISCLAIMS ALL WARRANTIES
WITH REGARD TO THIS SOFTWARE INCLUDING ALL IMPLIED WARRANTIES OF
MERCHANTABILITY AND FITNESS. IN NO EVENT SHALL THE AUTHOR BE LIABLE FOR
ANY SPECIAL, DIRECT, INDIRECT, OR CONSEQUENTIAL DAMAGES OR ANY DAMAGES
WHATSOEVER RESULTING FROM LOSS OF USE, DATA OR PROFITS, WHETHER IN AN
ACTION OF CONTRACT, NEGLIGENCE OR OTHER TORTIOUS ACTION, ARISING OUT OF
OR IN CONNECTION WITH THE USE OR PERFORMANCE OF THIS SOFTWARE.
<hr>
<h1>Libraries</h1>
<hr>
HOOMD-blue links to the following libraries, possibly statically or dynamically depending on configuration options chosen at build time <br>
 - \b boost - Used under the Boost Software License, Version 1.0 (http://www.boost.org/LICENSE_1_0.txt)<br>
 - \b zlib - Used under the zlib license (http://www.zlib.net/zlib_license.html)<br>
 - \b python - Used under the Python license (http://www.python.org/psf/license/)<br>

<hr>
*/


