<?xml version="1.0" encoding="UTF-8"?>
<!DOCTYPE plist PUBLIC "-//Apple Computer//DTD PLIST 1.0//EN" "http://www.apple.com/DTDs/PropertyList-1.0.dtd">
<plist version="1.0">
<dict>
	<key>CFBundleDevelopmentRegion</key>
	<string>English</string>
	<key>CFBundleExecutable</key>
	<string>HOOMD-blue</string>
	<key>CFBundleIconFile</key>
	<string>${MACOSX_BUNDLE_ICON_FILE}</string>
	<key>CFBundleIdentifier</key>
	<string>edu.umich.hoomd-blue</string>
	<key>CFBundleInfoDictionaryVersion</key>
	<string>6.0</string>
	<key>CFBundleName</key>
	<string>HOOMD-blue</string>
	<key>CFBundlePackageType</key>
	<string>APPL</string>
	<key>CFBundleShortVersionString</key>
	<string>${HOOMD_VERSION}</string>
	<key>CFBundleVersion</key>
	<string>${SVNVERSION}</string>
	<key>CSResourcesFileMapped</key>
	<true/>
	<key>LSRequiresCarbon</key>
	<true/>
	<key>NSHumanReadableCopyright</key>
	<string>Copyright © 2008-2011 Ames Laboratory Iowa State University and The Regents of the University of Michigan</string>
    <key>LSMinimumSystemVersion</key>
    <string>10.6.0</string>
</dict>
</plist>
