/*
Highly Optimized Object-oriented Many-particle Dynamics -- Blue Edition
(HOOMD-blue) Open Source Software License Copyright 2008-2011 Ames Laboratory
Iowa State University and The Regents of the University of Michigan All rights
reserved.

HOOMD-blue may contain modifications ("Contributions") provided, and to which
copyright is held, by various Contributors who have granted The Regents of the
University of Michigan the right to modify and/or distribute such Contributions.

You may redistribute, use, and create derivate works of HOOMD-blue, in source
and binary forms, provided you abide by the following conditions:

* Redistributions of source code must retain the above copyright notice, this
list of conditions, and the following disclaimer both in the code and
prominently in any materials provided with the distribution.

* Redistributions in binary form must reproduce the above copyright notice, this
list of conditions, and the following disclaimer in the documentation and/or
other materials provided with the distribution.

* All publications and presentations based on HOOMD-blue, including any reports
or published results obtained, in whole or in part, with HOOMD-blue, will
acknowledge its use according to the terms posted at the time of submission on:
http://codeblue.umich.edu/hoomd-blue/citations.html

* Any electronic documents citing HOOMD-Blue will link to the HOOMD-Blue website:
http://codeblue.umich.edu/hoomd-blue/

* Apart from the above required attributions, neither the name of the copyright
holder nor the names of HOOMD-blue's contributors may be used to endorse or
promote products derived from this software without specific prior written
permission.

Disclaimer

THIS SOFTWARE IS PROVIDED BY THE COPYRIGHT HOLDER AND CONTRIBUTORS ``AS IS'' AND
ANY EXPRESS OR IMPLIED WARRANTIES, INCLUDING, BUT NOT LIMITED TO, THE IMPLIED
WARRANTIES OF MERCHANTABILITY, FITNESS FOR A PARTICULAR PURPOSE, AND/OR ANY
WARRANTIES THAT THIS SOFTWARE IS FREE OF INFRINGEMENT ARE DISCLAIMED.

IN NO EVENT SHALL THE COPYRIGHT HOLDER OR CONTRIBUTORS BE LIABLE FOR ANY DIRECT,
INDIRECT, INCIDENTAL, SPECIAL, EXEMPLARY, OR CONSEQUENTIAL DAMAGES (INCLUDING,
BUT NOT LIMITED TO, PROCUREMENT OF SUBSTITUTE GOODS OR SERVICES; LOSS OF USE,
DATA, OR PROFITS; OR BUSINESS INTERRUPTION) HOWEVER CAUSED AND ON ANY THEORY OF
LIABILITY, WHETHER IN CONTRACT, STRICT LIABILITY, OR TORT (INCLUDING NEGLIGENCE
OR OTHERWISE) ARISING IN ANY WAY OUT OF THE USE OF THIS SOFTWARE, EVEN IF
ADVISED OF THE POSSIBILITY OF SUCH DAMAGE.
*/

// Maintainer: joaander

#include "TwoStepNVEGPU.cuh"

#ifdef WIN32
#include <cassert>
#else
#include <assert.h>
#endif

/*! \file TwoStepNVEGPU.cu
    \brief Defines GPU kernel code for NVE integration on the GPU. Used by TwoStepNVEGPU.
*/

//! Takes the first half-step forward in the velocity-verlet NVE integration on a group of particles
/*! \param d_pos array of particle positions
    \param d_vel array of particle velocities
    \param d_accel array of particle accelerations
    \param d_image array of particle images
    \param d_group_members Device array listing the indicies of the mebers of the group to integrate
    \param group_size Number of members in the group
    \param box Box dimensions for periodic boundary condition handling
    \param deltaT timestep
    \param limit If \a limit is true, then the dynamics will be limited so that particles do not move
        a distance further than \a limit_val in one step.
    \param limit_val Length to limit particle distance movement to
    \param zero_force Set to true to always assign an acceleration of 0 to all particles in the group

    This kernel must be executed with a 1D grid of any block size such that the number of threads is greater than or
    equal to the number of members in the group. The kernel's implementation simply reads one particle in each thread
    and updates that particle.

    <b>Performance notes:</b>
    Particle properties are read via the texture cache to optimize the bandwidth obtained with sparse groups. The writes
    in sparse groups will not be coalesced. However, because ParticleGroup sorts the index list the writes will be as
    contiguous as possible leading to fewer memory transactions on compute 1.3 hardware and more cache hits on Fermi.
*/
extern "C" __global__
void gpu_nve_step_one_kernel(Scalar4 *d_pos,
                             Scalar4 *d_vel,
                             const Scalar3 *d_accel,
                             int3 *d_image,
                             unsigned int *d_group_members,
                             unsigned int group_size,
                             BoxDim box,
                             Scalar deltaT,
                             bool limit,
                             Scalar limit_val,
                             bool zero_force)
    {
    // determine which particle this thread works on (MEM TRANSFER: 4 bytes)
    int group_idx = blockIdx.x * blockDim.x + threadIdx.x;

    if (group_idx < group_size)
        {
        unsigned int idx = d_group_members[group_idx];

        // do velocity verlet update
        // r(t+deltaT) = r(t) + v(t)*deltaT + (1/2)a(t)*deltaT^2
        // v(t+deltaT/2) = v(t) + (1/2)a*deltaT

        // read the particle's posision (MEM TRANSFER: 16 bytes)
        Scalar4 postype = d_pos[idx];
        Scalar3 pos = make_scalar3(postype.x, postype.y, postype.z);

        // read the particle's velocity and acceleration (MEM TRANSFER: 32 bytes)
        Scalar4 velmass = d_vel[idx];
        Scalar3 vel = make_scalar3(velmass.x, velmass.y, velmass.z);

        Scalar3 accel = make_scalar3(Scalar(0.0), Scalar(0.0), Scalar(0.0));
        if (!zero_force)
            accel = d_accel[idx];

        // update the position (FLOPS: 15)
        Scalar3 dx = vel * deltaT + (Scalar(1.0)/Scalar(2.0)) * accel * deltaT * deltaT;

        // limit the movement of the particles
        if (limit)
            {
            Scalar len = sqrtf(dot(dx, dx));
            if (len > limit_val)
                dx = dx / len * limit_val;
            }

        // FLOPS: 3
        pos += dx;

        // update the velocity (FLOPS: 9)
        vel += (Scalar(1.0)/Scalar(2.0)) * accel * deltaT;

        // read in the particle's image (MEM TRANSFER: 16 bytes)
        int3 image = d_image[idx];

        // fix the periodic boundary conditions (FLOPS: 15)
        box.wrap(pos, image);

        // write out the results (MEM_TRANSFER: 48 bytes)
        d_pos[idx] = make_scalar4(pos.x, pos.y, pos.z, postype.w);
        d_vel[idx] = make_scalar4(vel.x, vel.y, vel.z, velmass.w);
        d_image[idx] = image;
        }
    }

/*! \param d_pos array of particle positions
    \param d_vel array of particle velocities
    \param d_accel array of particle accelerations
    \param d_image array of particle images
    \param d_group_members Device array listing the indicies of the mebers of the group to integrate
    \param group_size Number of members in the group
    \param box Box dimensions for periodic boundary condition handling
    \param deltaT timestep
    \param limit If \a limit is true, then the dynamics will be limited so that particles do not move
        a distance further than \a limit_val in one step.
    \param limit_val Length to limit particle distance movement to
    \param zero_force Set to true to always assign an acceleration of 0 to all particles in the group

    See gpu_nve_step_one_kernel() for full documentation, this function is just a driver.
*/
cudaError_t gpu_nve_step_one(Scalar4 *d_pos,
                             Scalar4 *d_vel,
                             const Scalar3 *d_accel,
                             int3 *d_image,
                             unsigned int *d_group_members,
                             unsigned int group_size,
                             const BoxDim& box,
                             Scalar deltaT,
                             bool limit,
                             Scalar limit_val,
                             bool zero_force)
    {
    // setup the grid to run the kernel
    int block_size = 256;
    dim3 grid( (group_size/block_size) + 1, 1, 1);
    dim3 threads(block_size, 1, 1);

    // run the kernel
    gpu_nve_step_one_kernel<<< grid, threads >>>(d_pos, d_vel, d_accel, d_image, d_group_members, group_size, box, deltaT, limit, limit_val, zero_force);

    return cudaSuccess;
    }

//! Takes the second half-step forward in the velocity-verlet NVE integration on a group of particles
/*! \param d_vel array of particle velocities
    \param d_accel array of particle accelerations
    \param d_group_members Device array listing the indicies of the mebers of the group to integrate
    \param group_size Number of members in the group
    \param d_net_force Net force on each particle
    \param deltaT Amount of real time to step forward in one time step
    \param limit If \a limit is true, then the dynamics will be limited so that particles do not move
        a distance further than \a limit_val in one step.
    \param limit_val Length to limit particle distance movement to
    \param zero_force Set to true to always assign an acceleration of 0 to all particles in the group

    This kernel is implemented in a very similar manner to gpu_nve_step_one_kernel(), see it for design details.
*/
extern "C" __global__
void gpu_nve_step_two_kernel(
                            Scalar4 *d_vel,
                            Scalar3 *d_accel,
                            unsigned int *d_group_members,
                            unsigned int group_size,
                            Scalar4 *d_net_force,
                            Scalar deltaT,
                            bool limit,
                            Scalar limit_val,
                            bool zero_force)
    {
    // determine which particle this thread works on (MEM TRANSFER: 4 bytes)
    int group_idx = blockIdx.x * blockDim.x + threadIdx.x;

    if (group_idx < group_size)
        {
        unsigned int idx = d_group_members[group_idx];

        // read in the net forc and calculate the acceleration MEM TRANSFER: 16 bytes
        Scalar3 accel = make_scalar3(Scalar(0.0), Scalar(0.0), Scalar(0.0));

        // read the current particle velocity (MEM TRANSFER: 16 bytes)
        Scalar4 vel = d_vel[idx];

        if (!zero_force)
            {
            Scalar4 net_force = d_net_force[idx];
            accel = make_scalar3(net_force.x, net_force.y, net_force.z);
            // MEM TRANSFER: 4 bytes   FLOPS: 3
            Scalar mass = vel.w;
            accel.x /= mass;
            accel.y /= mass;
            accel.z /= mass;
            }

        // v(t+deltaT) = v(t+deltaT/2) + 1/2 * a(t+deltaT)*deltaT

        // update the velocity (FLOPS: 6)
        vel.x += (Scalar(1.0)/Scalar(2.0)) * accel.x * deltaT;
        vel.y += (Scalar(1.0)/Scalar(2.0)) * accel.y * deltaT;
        vel.z += (Scalar(1.0)/Scalar(2.0)) * accel.z * deltaT;

        if (limit)
            {
            Scalar vel_len = sqrtf(vel.x*vel.x + vel.y*vel.y + vel.z*vel.z);
            if ( (vel_len*deltaT) > limit_val)
                {
                vel.x = vel.x / vel_len * limit_val / deltaT;
                vel.y = vel.y / vel_len * limit_val / deltaT;
                vel.z = vel.z / vel_len * limit_val / deltaT;
                }
            }

        // write out data (MEM TRANSFER: 32 bytes)
        d_vel[idx] = vel;
        // since we calculate the acceleration, we need to write it for the next step
        d_accel[idx] = accel;
        }
    }

/*! \param d_vel array of particle velocities
    \param d_accel array of particle accelerations
    \param d_group_members Device array listing the indicies of the mebers of the group to integrate
    \param group_size Number of members in the group
    \param d_net_force Net force on each particle
    \param deltaT Amount of real time to step forward in one time step
    \param limit If \a limit is true, then the dynamics will be limited so that particles do not move
        a distance further than \a limit_val in one step.
    \param limit_val Length to limit particle distance movement to
    \param zero_force Set to true to always assign an acceleration of 0 to all particles in the group

    This is just a driver for gpu_nve_step_two_kernel(), see it for details.
*/
cudaError_t gpu_nve_step_two(Scalar4 *d_vel,
                             Scalar3 *d_accel,
                             unsigned int *d_group_members,
                             unsigned int group_size,
                             Scalar4 *d_net_force,
                             Scalar deltaT,
                             bool limit,
                             Scalar limit_val,
                             bool zero_force)
    {

    // setup the grid to run the kernel
    int block_size = 256;
    dim3 grid( (group_size/block_size) + 1, 1, 1);
    dim3 threads(block_size, 1, 1);

    // run the kernel
    gpu_nve_step_two_kernel<<< grid, threads >>>(d_vel,
                                                 d_accel,
                                                 d_group_members,
                                                 group_size,
                                                 d_net_force,
                                                 deltaT,
                                                 limit,
                                                 limit_val,
                                                 zero_force);

    return cudaSuccess;
    }
