/*
Highly Optimized Object-oriented Many-particle Dynamics -- Blue Edition
(HOOMD-blue) Open Source Software License Copyright 2008, 2009 Ames Laboratory
Iowa State University and The Regents of the University of Michigan All rights
reserved.

HOOMD-blue may contain modifications ("Contributions") provided, and to which
copyright is held, by various Contributors who have granted The Regents of the
University of Michigan the right to modify and/or distribute such Contributions.

Redistribution and use of HOOMD-blue, in source and binary forms, with or
without modification, are permitted, provided that the following conditions are
met:

* Redistributions of source code must retain the above copyright notice, this
list of conditions, and the following disclaimer.

* Redistributions in binary form must reproduce the above copyright notice, this
list of conditions, and the following disclaimer in the documentation and/or
other materials provided with the distribution.

* Neither the name of the copyright holder nor the names of HOOMD-blue's
contributors may be used to endorse or promote products derived from this
software without specific prior written permission.

Disclaimer

THIS SOFTWARE IS PROVIDED BY THE COPYRIGHT HOLDER AND CONTRIBUTORS ``AS IS''
AND ANY EXPRESS OR IMPLIED WARRANTIES, INCLUDING, BUT NOT LIMITED TO, THE
IMPLIED WARRANTIES OF MERCHANTABILITY, FITNESS FOR A PARTICULAR PURPOSE, AND/OR
ANY WARRANTIES THAT THIS SOFTWARE IS FREE OF INFRINGEMENT ARE DISCLAIMED.

IN NO EVENT SHALL THE COPYRIGHT HOLDER OR CONTRIBUTORS BE LIABLE FOR ANY DIRECT,
INDIRECT, INCIDENTAL, SPECIAL, EXEMPLARY, OR CONSEQUENTIAL DAMAGES (INCLUDING,
BUT NOT LIMITED TO, PROCUREMENT OF SUBSTITUTE GOODS OR SERVICES; LOSS OF USE,
DATA, OR PROFITS; OR BUSINESS INTERRUPTION) HOWEVER CAUSED AND ON ANY THEORY OF
LIABILITY, WHETHER IN CONTRACT, STRICT LIABILITY, OR TORT (INCLUDING NEGLIGENCE
OR OTHERWISE) ARISING IN ANY WAY OUT OF THE USE OF THIS SOFTWARE, EVEN IF
ADVISED OF THE POSSIBILITY OF SUCH DAMAGE.
*/

// $Id$
// $URL$
// Maintainer: joaander

/*! \file PotentialPairLJGPU.cu
    \brief Defines the driver function for computing LJ pair forces on the GPU
*/

#include "EvaluatorPairLJ.h"
#include "PotentialPairLJGPU.cuh"

/*! This is just a driver function for gpu_compute_pair_forces<EvaluatorPairLJ>(). See it for details.

    \param force_data Device memory array to write calculated forces to
    \param pdata Particle data on the GPU to calculate forces on
    \param box Box dimensions used to implement periodic boundary conditions
    \param nlist Neigbhor list data on the GPU to use to calculate the forces
    \param d_params Parameters for the potential, stored per type pair
    \param d_rcutsq rcut squared, stored per type pair
    \param d_ronsq ron squared, stored per type pair
    \param ntypes Number of types in the simulation
    \param args Additional options
*/
cudaError_t gpu_compute_ljtemp_forces(const gpu_force_data_arrays& force_data,
                                      const gpu_pdata_arrays &pdata,
                                      const gpu_boxsize &box,
                                      const gpu_nlist_array &nlist,
                                      float2 *d_params,
                                      float *d_rcutsq,
                                      float *d_ronsq,
                                      int ntypes,
                                      const pair_args& args)
    {
    return gpu_compute_pair_forces<EvaluatorPairLJ>(force_data,
                                                    pdata,
                                                    box,
                                                    nlist,
                                                    d_params,
                                                    d_rcutsq,
                                                    d_ronsq,
                                                    ntypes,
                                                    args);
    }