// Copyright (c) 2009-2019 The Regents of the University of Michigan
// This file is part of the HOOMD-blue project, released under the BSD 3-Clause License.


// This is a miscellaneous place to define doxygen groups

/*! \defgroup hoomd_lib HOOMD Core Library
*/

/*! \defgroup executables Executables produced
	@{
*/

/*! \defgroup unit_tests Unit tests
*/
/*! \defgroup benchmarks Low level benchmarks
*/

/*! \defgroup vecmath Vector Math
*/

/*! @}
*/
