// Copyright (c) 2009-2016 The Regents of the University of Michigan
// This file is part of the HOOMD-blue project, released under the BSD 3-Clause License.


/*!

\mainpage

Welcome to the developer documentation for HOOMD!

\section sec_main_toc Table of Contents

- \subpage page_compile_guide
- \subpage page_dev_info
- \subpage page_license
- \subpage page_credits

*/
