// Copyright (c) 2009-2016 The Regents of the University of Michigan
// This file is part of the HOOMD-blue project, released under the BSD 3-Clause License.


/*!

\page page_concepts Concepts

1. \subpage page_units
2. \subpage page_box
3. \subpage page_xml_file_format
4. \subpage page_aniso
5. \subpage page_mpi
6. \subpage page_autotuner
7. \subpage page_restartable_jobs

*/
