/*! \page page_example_scripts Example Scripts

Examples:
 - \ref sec_example_dump<br>
     <i>The simulation trajectory is written to a file which can be viewed in visualization software such as VMD</i>
 - \ref sec_example_imd<br>
     <i>A running simulation is connected to VMD which displays the current system state updated in real-time</i>
 - \ref sec_example_polygen<br>
     <i>The polymer generator can generate complicated initial conditions for bead-spring polymer systems</i>
 - \ref sec_example_hoomd_xml<br>
     <i>None of the built-in generators works for you? Write an input file describing the initial condition and load it in.</i>
 - \ref sec_example_loop<br>
    <i>One simulation in a script not enough? Use a simple python loop to run many in a row!</i>
 - \ref sec_example_pyinit<br>
     <i>None of the built-in generators works \b AND you don't want to read an xml file? Just create your initial condition on the fly with python!</i>
 - \ref sec_example_potential_plot<br>
     <i>Want to plot a potential used by HOOMD-blue? Use python to get the job done simply!</i>

<hr>

\section sec_example_dump Example 1: Using dump files

This simple example is a simple adaptation of the quick start script.
It performs a simulation of a Lennard-Jones liquid, dumping snapshots 
of the system every 100 time steps.
\code
from hoomd_script import *

# create 1000 random particles of name A
init.create_random(N=1000, phi_p=0.01, name='A')

# specify Lennard-Jones interactions between particle pairs
lj = pair.lj(r_cut=3.0)
lj.pair_coeff.set('A', 'A', epsilon=1.0, sigma=1.0)

# integrate at constant temperature
all = group.all()
integrate.mode_standard(dt=0.005)
integrate.nvt(group=all, T=1.2, tau=0.5)

# dump a .mol2 file for the structure information
mol2 = dump.mol2()
mol2.write(filename='example1.mol2')

# dump a .dcd file for the trajectory
dump.dcd(filename='example1.dcd', period=100)

# run 10,000 time steps
run(10e3)
\endcode

Running this quick simulation should result in two output files being generated
in the current working directory: \c example.mol2 and \c example.dcd. The 
\c .mol2 file generated by \link hoomd_script.dump.mol2 dump.mol2 \endlink 
contains the particle names and coordinates at time step 0. If there were
any bonds specified, they would be included too. VMD or other applications
can read in the \c .mol2 to obtain this information.

\c dump.dcd includes snapshots of the system state (particle position
coordinates only) written every 100 time steps. This file can be loaded into
visualization software such as VMD and played as a movie or read for
analysis purposes.

If you have VMD installed, you can load up the entire simulation trajectory
by running
\code
vmd example1.mol2 example1.dcd
\endcode
on the command line or by loading these files using VMD's GUI. For the best 
visualization, open VMD's <i>Graphical Representation</i> menu and set the 
<i>Drawing Method</i> to VDW. The default of lines will draw a seemingly random
line through the simulation box. This is actually a dummy bond between particles
0 and 1, as VMD refuses to load a MOL2 file without any bonds specified in it.

<hr>

\section sec_example_imd Example 2: Using IMD

Here is the same simulation as <b>Example 1</b>, this time configured for real-time display
in VMD using the IMD interface.
\code
from hoomd_script import *

# create 1000 random particles of name A
init.create_random(N=1000, phi_p=0.01, name='A')

# specify Lennard-Jones interactions between particle pairs
lj = pair.lj(r_cut=3.0)
lj.pair_coeff.set('A', 'A', epsilon=1.0, sigma=1.0)

# integrate at constant temperature
all = group.all()
integrate.mode_standard(dt=0.005)
integrate.nvt(group=all, T=1.2, tau=0.5)

# dump a .mol2 file for the structure information
mol2 = dump.mol2()
mol2.write(filename='example2.mol2')

# setup the IMD server
analyze.imd(port=54321, period=500)

# run a very long time so the simulation can be watched in VMD
run(1e9)
\endcode
Start the simulation running in hoomd, then load up VMD. Inside VMD, create
a new molecule and load the file \c example2.mol2 generated at the beginning
of the simulation. Then go to the VMD command window and run the command
\code
imd connect localhost 54321
\endcode
The particles in the display window should begin moving. The display
is of the current state of the simulation, updated in \b real-time. Again, 
the best visualization is obtained by setting the <i>Drawing Method</i> to VDW in
VMD's <i>Graphical Representation</i> menu.

Switch back to the terminal where hoomd is running and press CTRL-C to kill the 
simulation. It is set to run for an extremely long time on purpose to allow 
ample time to launch VMD and issue the \c imd command.

<hr>

\section sec_example_polygen Example 3: Using the polymer generator

Here is a more complicated script that generates a system of bead-spring polymers, which self-assemble
into a hex phase when run for a few million time steps. The polymers are A6B7A6 block copolymers
in an implicit solvent. The script also shows a few examples of how writing python
code in the script can be handy: here the concentration \c phi_P is a parameter and 
math operations are performed to calculate the length of the box.

For more information on the model in this script, see<br>
"Micellar crystals in solution from molecular dynamics simulations"<br>
J. Chem. Phys. \b 128, 184906 (2008); DOI:10.1063/1.2913522<br>
http://link.aip.org/link/?JCPSA6/128/184906/1

Any of the polymer systems in the paper could be easily run just by changing a few parameters in 
this script.
\code
from hoomd_script import *
import math

# parameters
phi_P = 0.25
n_poly = 600
T = 1.2
polymer1 = dict(bond_len=1.2, type=['A']*6 + ['B']*7 + ['A']*6, 
                bond="linear", count=n_poly)

# perform some simple math to find the length of the box
N = len(polymer1['type']) * polymer1['count']
L = math.pow(math.pi * N / (6.0 * phi_P), 1.0/3.0)

# generate the polymer system
init.create_random_polymers(box=hoomd.BoxDim(L), polymers=[polymer1], 
                            separation=dict(A=0.35, B=0.35), seed=12)

# force field setup
harmonic = bond.harmonic()
harmonic.set_coeff('polymer', k=330.0, r0=0.84)
lj = pair.lj(r_cut=3.0)
lj.pair_coeff.set('A', 'A', epsilon=1.0, sigma=1.0, alpha=0.0)
lj.pair_coeff.set('A', 'B', epsilon=1.0, sigma=1.0, alpha=0.0)
lj.pair_coeff.set('B', 'B', epsilon=1.0, sigma=1.0, alpha=1.0)

# dump every 100,000 steps
mol2 = dump.mol2()
mol2.write(filename="example3.mol2")
dump.dcd(filename="example3.dcd", period=100000)

# integrate NVT for a bunch of time steps
all = group.all()
integrate.mode_standard(dt=0.005)
integrate.nvt(group=all, T=1.2, tau=0.5)
run(2000)

# uncomment the next run() command if you have a few hours to spare 
# running this on a GPU the resulting dump files should show the
# polymers self-assembling into the hex phase
# run(10e9)
\endcode

<hr>

\section sec_example_hoomd_xml Example 4: Using arbitrary input files

Of course, hoomd is not limited by the built-in random initial condition generators used in the 
previous example. You can load in an arbitrary initial condition from a formatted xml file. 
Here is a simple example demonstrating most of the types of data that can be input (see \ref page_xml_file_format
for full documentation of this format):
\code
<?xml version="1.0" encoding="UTF-8"?>
<hoomd_xml>
<configuration time_step="0">
<box units="sigma"  Lx="10" Ly="10" Lz="10"/>
<!-- Setup the initial condition to place all particles in a line -->
<position units="sigma">
-3 0 0
-2 0 0
-1 0 0
0 0 0
1 0 0
2 0 0
3 0 0
</position>
<!-- Name the first 3 particles A and the rest B -->
<type>
A
A
A
B
B
B
B
</type>
<!-- Bond the particles together into a polymer chain -->
<bond>
polymer 0 1
polymer 1 2
polymer 2 3
polymer 3 4
polymer 4 5
polymer 5 6
</bond>
<!-- Give the particles a little kick with an initial velocity -->
<velocity units="sigma/tau">
1 2 3
3 2 1
1 0 0
0 1 0
0 0 1
-1 -2 -3
-3 -2 -1
</velocity>
</configuration>
</hoomd_xml>
\endcode

Copy and paste this data to a file \em example4.xml. The initial conditions can be read into a simulation
using the command \link hoomd_script.init.read_xml init.read_xml\endlink as shown in the example script below.
\code
from hoomd_script import *
import math

# read in the file
init.read_xml(filename="example4.xml")

# example4.xml defines a single polymer: use the same force field as in example 3
# force field setup
harmonic = bond.harmonic()
harmonic.set_coeff('polymer', k=330.0, r0=0.84)
lj = pair.lj(r_cut=3.0)
lj.pair_coeff.set('A', 'A', epsilon=1.0, sigma=1.0, alpha=0.0)
lj.pair_coeff.set('A', 'B', epsilon=1.0, sigma=1.0, alpha=0.0)
lj.pair_coeff.set('B', 'B', epsilon=1.0, sigma=1.0, alpha=1.0)

# dump every few steps
mol2 = dump.mol2()
mol2.write(filename="example4.mol2")
dump.dcd(filename="example4.dcd", period=10)

# integrate NVT for a bunch of time steps
all = group.all()
integrate.mode_standard(dt=0.005)
integrate.nvt(group=all, T=1.2, tau=0.5)
run(2000)
\endcode

\section sec_example_loop Example 5: Using a python loop to run many simulations at different parameters

In a loop, this example performs a simulation of a Lennard-Jones liquid
at different system sizes one after the other. It shows how the power of python
code in a hoomd script can be utilized to accomplish complicated tasks. 
For more information on python and a tutorial on the python language,
check out http://www.python.org .

\code
from hoomd_script import *

# create a list ranging from 1000 to 2000 in steps of 100
size_array = range(1000,2000,100)

# loop over the system sizes in the array
for size in size_array:
    # create size random particles of name A
    init.create_random(N=size, phi_p=0.01, name='A')
    
    # specify Lennard-Jones interactions between particle pairs
    lj = pair.lj(r_cut=3.0)
    lj.pair_coeff.set('A', 'A', epsilon=1.0, sigma=1.0)
    
    # integrate at constant temperature
    all = group.all()
    integrate.mode_standard(dt=0.005)
    integrate.nvt(group=all, T=1.2, tau=0.5)
    
    # run 10,000 time steps
    run(10e3)
    
    # we need to clear all saved variables before resetting and
    # starting the next simulation so there is no memory leak
    del lj
    init.reset()

\endcode

\section sec_example_pyinit Example 6: Using python code to set the simulation initial condition

This example performs a simulation of a Lennard-Jones liquid of two types of particles A and B. The initial condition
is a simple cubic lattice, with the top half of the box containing particles of type B and the bottom half type A.

It demonstrates several use-cases for accessing particle data from within python that could be easily copied
and used in other scripts.
 - Initialization of all particle positions
 - Initialization of a thermal velocity distribution
 - Changing the type of a group of particles

For more information on python and a tutorial on the python language,
check out http://www.python.org . Details about the relevant commands in hoomd_script can be found here:
 - \link hoomd_script.init.create_empty init.create_empty\endlink
 - hoomd_script.data

\code
from hoomd_script import *
import random

# parameters of the simple cubic crystal
a = 1.2
m = 10

system = init.create_empty(N=m*m*m, box=(m*a, m*a, m*a), n_particle_types=2)

# initialize a simple cubic array of particles
lo = - m*a / 2.0;
for p in system.particles:
    (i, j, k) = (p.tag % m, p.tag/m % m, p.tag/m**2  % m)
    p.position = (lo + i*a + a/2, lo + j*a + a/2, lo + k*a + a/2)

# make the top half type B
top = group.cuboid(name="top", ymin=0)
for p in top:
    p.type = 'B'

# initialize the velocities to be a thermal distribution
random.seed(1234);
T = 1.0
for p in system.particles:
    mass = p.mass;
    vx = random.gauss(0, T / mass)
    vy = random.gauss(0, T / mass)
    vz = random.gauss(0, T / mass)
    p.velocity = (vx, vy, vz)
    
# NOTE!! The above initialization will result in center of mass motion of the system, either remove it with another
# loop, or enable the zero_momentum updater as shown below.
update.zero_momentum(period=1e6)

# simple lennard jones potential
lj = pair.lj(r_cut=3.0)
lj.pair_coeff.set('A', 'A', epsilon=1.0, sigma=1.0)
lj.pair_coeff.set('A', 'B', epsilon=1.0, sigma=1.0)
lj.pair_coeff.set('B', 'B', epsilon=1.0, sigma=1.0)

# integrate forward in the nve ensemble
all = group.all()
integrate.mode_standard(dt=0.005)
integrate.nve(group=all)

# run for 20k steps
run(20000)
\endcode

\section sec_example_potential_plot Example 7: Using python code to plot a potential

This example creates a system of just two particles and sets a pair potential between them. It then steps those two
particles dr apart each step and prints out the potential energy and force to a file after each step. The file is 
tab delimited and can be loaded into your favorite tool for plotting. Modifying this script to use a different potential
specification is trivial.

This script is useful for plotting potentials and forces as evaluated by hoomd to check their validity.

\code
from hoomd_script import *

sysdef = init.create_empty(N=2, box = (20, 20, 20))
# parameters for the plot
rmin = 0.5
rmax = 5.0
dr = 0.001
# you can set parameters of the two particles here, as shown in the commented line below
# sysdef.particles[1].diameter = 2.0

# pair potential settings for the plot
f = pair.lj(r_cut=2.5)
f.pair_coeff.set('A', 'A', epsilon=1.0, sigma=1.0)

# save forces for accessing below for plots
forces = f.forces;

###########################################
## Start a run with the 2 particles, moving particle 1 a bit each time
## and plot the potential to a file after each step
# setup the particles for the run
p0 = sysdef.particles[0];
p1 = sysdef.particles[1];

p0.position = (0,0,0)
p0.velocity = (0,0,0)
p1.position = (rmin, 0, 0)
p1.velocity = (dr, 0, 0)

# setup the run to go between the desired rmin, rmax
nsteps = int((rmax - rmin) / dr);

integrate.mode_standard(dt=1.0)
integrate.nve(group=group.all(), zero_force=True)

f = open('potential', 'w')

f.write("r\tF\tV\n")
for i in xrange(0, nsteps):
    run(1, quiet=True)
    f.write("%f\t%f\t%f\n" % (p1.position[0], forces[1].force[0], 2.0 * forces[0].energy))
\endcode

*/
