/*! \mainpage

Welcome to the \b user documentation for HOOMD-blue!

-# \subpage page_install_guide
-# \subpage page_quick_start
-# \subpage page_example_scripts
-# \subpage page_command_list
-# \subpage page_xml_file_format
-# \subpage page_command_line_options
-# <a href="https://codeblue.umich.edu/hoomd-blue/trac/wiki/MigratingFromLAMMPS">Migrating from LAMMPS (wiki link)</a>
-# \subpage page_conversion_scripts
-# \subpage page_compile_guide
-# \subpage page_license
-# \subpage page_credits

<hr>

Up to date documentation can be found at the following links:
 - <a href="http://codeblue.umich.edu/hoomd-blue/doc/">Documentation</a> for the latest <b>packaged release</b>.
 - <a href="http://codeblue.umich.edu/hoomd-blue/doc-trunk/">Documentation</a> for the current <b>development version</b> in trunk/.
 - Documentation consistent with any given version can be built from the source code by following the instructions in \ref page_compile_guide.
*/

/*! \page page_command_list Index of Script Commands

Click on an individual command in the list to go to its documentation. Click on the package link at the 
beginning of each list to get a general overview of all commands in that package.

Table of contents:
 - \ref sec_index_run
 - \ref sec_index_init
 - \ref sec_index_integration
 - \ref sec_index_update
 - \ref sec_index_compute
 - \ref sec_index_analyze
 - \ref sec_index_dump
 - Potentials
   - \ref sec_index_pair
   - \ref sec_index_bond
   - \ref sec_index_angle
   - \ref sec_index_dihedral
   - \ref sec_index_improper
   - \ref sec_index_wall
   - \ref sec_index_constraint
   - \ref sec_index_other

 - Helpers
   - \ref sec_index_group
   - \ref sec_index_variant
 - Miscellaneous
  - \ref sec_index_tuning

\section sec_index_run Run
 - \link hoomd_script.run() run\endlink - <i>\copybrief hoomd_script::run() </i>
 - \link hoomd_script.run_upto() run_upto\endlink - <i>\copybrief hoomd_script::run_upto() </i>

\section sec_index_init Initialize
\link hoomd_script.init init\endlink:
 - \link hoomd_script.init.create_empty() init.create_empty\endlink - <i>\copybrief hoomd_script::init::create_empty() </i>
 - \link hoomd_script.init.create_random() init.create_random\endlink - <i>\copybrief hoomd_script::init::create_random() </i>
 - \link hoomd_script.init.create_random_polymers() init.create_random_polymers\endlink - <i>\copybrief hoomd_script::init::create_random_polymers() </i>
 - \link hoomd_script.init.read_bin() init.read_bin\endlink - <i>\copybrief hoomd_script::init::read_bin() </i>
 - \link hoomd_script.init.read_xml() init.read_xml\endlink - <i>\copybrief hoomd_script::init::read_xml() </i>

 - \link hoomd_script.init.reset() init.reset\endlink - <i>\copybrief hoomd_script::init::reset() </i>
 - \link hoomd_script.init.is_initialized() init.is_initialized\endlink - <i>\copybrief hoomd_script::init::is_initialized() </i>

 - \link hoomd_script.data data access\endlink - <i>\copybrief hoomd_script::data </i>

\section sec_index_integration Integrate
\link hoomd_script.integrate integrate\endlink: 
 - \link hoomd_script.integrate.mode_minimize_fire integrate.mode_minimize_fire\endlink - <i>\copybrief hoomd_script::integrate::mode_minimize_fire </i>
 - \link hoomd_script.integrate.mode_standard integrate.mode_standard\endlink - <i>\copybrief hoomd_script::integrate::mode_standard </i>
   - \link hoomd_script.integrate.bdnvt integrate.bdnvt\endlink - <i>\copybrief hoomd_script::integrate::bdnvt </i> 
   - \link hoomd_script.integrate.npt integrate.npt\endlink - <i>\copybrief hoomd_script::integrate::npt </i> 
   - \link hoomd_script.integrate.nve integrate.nve\endlink - <i>\copybrief hoomd_script::integrate::nve </i>
   - \link hoomd_script.integrate.nvt integrate.nvt\endlink - <i>\copybrief hoomd_script::integrate::nvt </i>
 
\section sec_index_update Update
\link hoomd_script.update update\endlink:
 - \link hoomd_script.update.box_resize update.box_resize\endlink - <i>\copybrief hoomd_script::update::box_resize </i>
 - \link hoomd_script.update.enforce2d update.enforce2d\endlink - <i>\copybrief hoomd_script::update::enforce2d </i>
 - \link hoomd_script.update.rescale_temp update.rescale_temp\endlink - <i>\copybrief hoomd_script::update::rescale_temp </i>
 - \link hoomd_script.update.sort update.sort\endlink - <i>\copybrief hoomd_script::update::sort </i>
 - \link hoomd_script.update.zero_momentum update.zero_momentum\endlink - <i>\copybrief hoomd_script::update::zero_momentum </i>

\section sec_index_compute Compute
\link hoomd_script.compute compute\endlink:
 - \link hoomd_script.compute.thermo compute.thermo\endlink - <i>\copybrief hoomd_script::compute::thermo </i>

\section sec_index_analyze Analyze
\link hoomd_script.analyze analyze\endlink:
 - \link hoomd_script.analyze.imd analyze.imd\endlink - <i>\copybrief hoomd_script::analyze::imd </i>
 - \link hoomd_script.analyze.log analyze.log\endlink - <i>\copybrief hoomd_script::analyze::log </i>
 - \link hoomd_script.analyze.msd analyze.msd\endlink - <i>\copybrief hoomd_script::analyze::msd </i>

\section sec_index_dump Dump
\link hoomd_script.dump dump\endlink:
 - \link hoomd_script.dump.dcd dump.dcd\endlink - <i>\copybrief hoomd_script::dump::dcd </i>
 - \link hoomd_script.dump.mol2 dump.mol2\endlink - <i>\copybrief hoomd_script::dump::mol2 </i>
 - \link hoomd_script.dump.pdb dump.pdb\endlink - <i>\copybrief hoomd_script::dump::pdb </i>
 - \link hoomd_script.dump.bin dump.bin\endlink - <i>\copybrief hoomd_script::dump::bin </i>
 - \link hoomd_script.dump.xml dump.xml\endlink - <i>\copybrief hoomd_script::dump::xml </i>

<h2>Potentials</h2>

\section sec_index_pair Pair potentials
\link hoomd_script.pair pair\endlink:
 - \link hoomd_script.pair.cgcmm pair.cgcmm\endlink - <i>\copybrief hoomd_script::pair::cgcmm </i>
 - \link hoomd_script.pair.dpd pair.dpd\endlink - <i>\copybrief hoomd_script::pair::dpd </i> 
 - \link hoomd_script.pair.dpd_conservative pair.dpd_conservative\endlink - <i>\copybrief hoomd_script::pair::dpd_conservative </i>
 - \link hoomd_script.pair.gauss pair.gauss\endlink - <i>\copybrief hoomd_script::pair::gauss </i>
 - \link hoomd_script.pair.lj pair.lj\endlink - <i>\copybrief hoomd_script::pair::lj </i>
 - \link hoomd_script.pair.morse pair.morse\endlink - <i>\copybrief hoomd_script::pair::morse </i>
 - \link hoomd_script.pair.table pair.table\endlink - <i>\copybrief hoomd_script::pair::table </i>
 - \link hoomd_script.pair.slj pair.slj\endlink - <i>\copybrief hoomd_script::pair::slj </i>
 - \link hoomd_script.pair.yukawa pair.yukawa\endlink - <i>\copybrief hoomd_script::pair::yukawa </i>
 - \link hoomd_script.pair.nlist nlist\endlink - <i>\copybrief hoomd_script::pair::nlist </i>

\section sec_index_bond Bond potentials
\link hoomd_script.bond bond\endlink:
 - \link hoomd_script.bond.harmonic bond.harmonic\endlink - <i>\copybrief hoomd_script::bond::harmonic </i>
 - \link hoomd_script.bond.fene bond.fene\endlink - <i>\copybrief hoomd_script::bond::fene </i>

\section sec_index_angle Angle potentials
\link hoomd_script.angle angle\endlink:
 - \link hoomd_script.angle.harmonic angle.harmonic\endlink - <i>\copybrief hoomd_script::angle::harmonic </i>
 - \link hoomd_script.angle.cgcmm angle.cgcmm\endlink - <i>\copybrief hoomd_script::angle::cgcmm </i>

\section sec_index_dihedral Dihedral potentials
\link hoomd_script.dihedral dihedral\endlink:
 - \link hoomd_script.dihedral.harmonic dihedral.harmonic\endlink - <i>\copybrief hoomd_script::dihedral::harmonic </i>

\section sec_index_improper Improper potentials
\link hoomd_script.improper improper\endlink:
 - \link hoomd_script.improper.harmonic improper.harmonic\endlink - <i>\copybrief hoomd_script::improper::harmonic </i>

\section sec_index_wall Wall potentials
\link hoomd_script.wall wall\endlink:
 - \link hoomd_script.wall.lj wall.lj\endlink - <i>\copybrief hoomd_script::wall::lj </i>

\section sec_index_constraint Constraint forces
\link hoomd_script.constrain constrain\endlink:
 - \link hoomd_script.constrain.sphere constrain.sphere\endlink - <i>\copybrief hoomd_script::constrain::sphere </i>

\section sec_index_other Other forces
\link hoomd_script.force force\endlink:
 - \link hoomd_script.force.constant force.constant\endlink - <i>\copybrief hoomd_script::force::constant </i>


<h2>Helpers</h2>

\section sec_index_group Group
\link hoomd_script.group group\endlink:
 - Create groups
  - \link hoomd_script.group.all() group.all\endlink - <i>\copybrief hoomd_script::group::all </i>
  - \link hoomd_script.group.cuboid() group.cuboid\endlink - <i>\copybrief hoomd_script::group::cuboid</i>
  - \link hoomd_script.group.tag_list() group.tag_list\endlink - <i>\copybrief hoomd_script::group::tag_list </i>
  - \link hoomd_script.group.tags() group.tags\endlink - <i>\copybrief hoomd_script::group::tags </i>
  - \link hoomd_script.group.type() group.type\endlink - <i>\copybrief hoomd_script::group::type </i>
 - Combine groups
  - \link hoomd_script.group.difference() group.difference\endlink - <i>\copybrief hoomd_script::group::difference </i>
  - \link hoomd_script.group.intersection() group.intersection\endlink - <i>\copybrief hoomd_script::group::intersection </i>
  - \link hoomd_script.group.union() group.union\endlink - <i>\copybrief hoomd_script::group::union </i>

\section sec_index_variant Variants
\link hoomd_script.variant variant\endlink:
 - \link hoomd_script.variant.linear_interp variant.linear_interp\endlink - <i>\copybrief hoomd_script::variant::linear_interp</i>

<h2>Miscellaneous commands</h2>
\section sec_index_tuning Tune
 - \link hoomd_script.tune.find_optimal_block_sizes() tune.find_optimal_block_sizes\endlink - <i>\copybrief hoomd_script::tune::find_optimal_block_sizes </i>

*/

