// Copyright (c) 2009-2017 The Regents of the University of Michigan
// This file is part of the HOOMD-blue project, released under the BSD 3-Clause License.

// Maintainer: mphoward

/*!
 * \file mpcd/CellCommunicator.cu
 * \brief Explicit instantiation of kernel drives for mpcd::CellCommunicator
 */

#include "CellCommunicator.cuh"
#include "CellThermoTypes.h"

namespace mpcd
{
namespace gpu
{

} // end namespace gpu
} // end namespace mpcd
