# Copyright (c) 2009-2021 The Regents of the University of Michigan
# This file is part of the HOOMD-blue project, released under the BSD 3-Clause
# License.

compile_date = "${COMPILE_DATE}"

git_branch = "${HOOMD_GIT_REFSPEC}"

git_sha1 = "${HOOMD_GIT_SHA1}"

md_built = ${_md_built}

hpmc_built = ${_hpmc_built}

mpcd_built = ${_mpcd_built}

metal_built = ${_metal_built}

cuda_include_path = "${CMAKE_CUDA_TOOLKIT_INCLUDE_DIRECTORIES}"

cuda_devrt_library = "${CUDA_cudadevrt_LIBRARY}"

build_dir = "${HOOMD_BINARY_DIR}"
