/*
Highly Optimized Object-oriented Many-particle Dynamics -- Blue Edition
(HOOMD-blue) Open Source Software License Copyright 2008-2011 Ames Laboratory
Iowa State University and The Regents of the University of Michigan All rights
reserved.

HOOMD-blue may contain modifications ("Contributions") provided, and to which
copyright is held, by various Contributors who have granted The Regents of the
University of Michigan the right to modify and/or distribute such Contributions.

You may redistribute, use, and create derivate works of HOOMD-blue, in source
and binary forms, provided you abide by the following conditions:

* Redistributions of source code must retain the above copyright notice, this
list of conditions, and the following disclaimer both in the code and
prominently in any materials provided with the distribution.

* Redistributions in binary form must reproduce the above copyright notice, this
list of conditions, and the following disclaimer in the documentation and/or
other materials provided with the distribution.

* All publications and presentations based on HOOMD-blue, including any reports
or published results obtained, in whole or in part, with HOOMD-blue, will
acknowledge its use according to the terms posted at the time of submission on:
http://codeblue.umich.edu/hoomd-blue/citations.html

* Any electronic documents citing HOOMD-Blue will link to the HOOMD-Blue website:
http://codeblue.umich.edu/hoomd-blue/

* Apart from the above required attributions, neither the name of the copyright
holder nor the names of HOOMD-blue's contributors may be used to endorse or
promote products derived from this software without specific prior written
permission.

Disclaimer

THIS SOFTWARE IS PROVIDED BY THE COPYRIGHT HOLDER AND CONTRIBUTORS ``AS IS'' AND
ANY EXPRESS OR IMPLIED WARRANTIES, INCLUDING, BUT NOT LIMITED TO, THE IMPLIED
WARRANTIES OF MERCHANTABILITY, FITNESS FOR A PARTICULAR PURPOSE, AND/OR ANY
WARRANTIES THAT THIS SOFTWARE IS FREE OF INFRINGEMENT ARE DISCLAIMED.

IN NO EVENT SHALL THE COPYRIGHT HOLDER OR CONTRIBUTORS BE LIABLE FOR ANY DIRECT,
INDIRECT, INCIDENTAL, SPECIAL, EXEMPLARY, OR CONSEQUENTIAL DAMAGES (INCLUDING,
BUT NOT LIMITED TO, PROCUREMENT OF SUBSTITUTE GOODS OR SERVICES; LOSS OF USE,
DATA, OR PROFITS; OR BUSINESS INTERRUPTION) HOWEVER CAUSED AND ON ANY THEORY OF
LIABILITY, WHETHER IN CONTRACT, STRICT LIABILITY, OR TORT (INCLUDING NEGLIGENCE
OR OTHERWISE) ARISING IN ANY WAY OUT OF THE USE OF THIS SOFTWARE, EVEN IF
ADVISED OF THE POSSIBILITY OF SUCH DAMAGE.
*/

// Every Evaluator in this plugin needs a corresponding function call here. This function call is responsible for
// performing the pair force computation with that evaluator on the GPU. (See AllDriverPairExtGPU.cu)

#ifndef __ALL_DRIVER_POTENTIAL_PAIR_EXT_GPU_CUH__
#define __ALL_DRIVER_POTENTIAL_PAIR_EXT_GPU_CUH__

#include "hoomd/hoomd_config.h"
#include "hoomd/PotentialPairGPU.cuh"

//! Compute lj pair forces on the GPU with PairEvaluatorLJ2
cudaError_t gpu_compute_lj2_forces(const pair_args_t& pair_args, const float2 *d_params);
// the last argument on the previous line is a pointer to the per type pair parameters passed into the pair potential
// it must be the same as the param_type in the evaluator this function uses
#endif

